    2    2    1    2
  0.2203382E+02  0.3964711E-09  0.3964711E-09  0.3964712E-09  0.5000000E-15
  1.000000000000000E-004
  CAR 
 unknown system                          
   18  180   16
 
  0.0000000E+00  0.0000000E+00  0.0000000E+00  0.5555556E-02
   1      -11.523425    -11.523430
   2        1.100906      1.100930
   3        1.100907      1.100930
   4        1.100908      1.100931
   5        1.132040      1.132055
   6        1.132040      1.132055
   7        1.221542      1.221542
   8        1.221542      1.221542
   9        1.221542      1.221542
  10        4.329663      4.329680
  11       14.279110     14.279108
  12       14.279111     14.279109
  13       14.279112     14.279110
  14       15.841787     15.841877
  15       16.534573     16.534577
  16       16.534573     16.534573
 
  0.2631579E-01  0.0000000E+00  0.2631579E-01  0.5555556E-02
   1      -11.520066    -11.520070
   2        0.921868      0.921877
   3        1.052610      1.052628
   4        1.052611      1.052629
   5        1.098851      1.098875
   6        1.133212      1.133228
   7        1.270034      1.270040
   8        1.270035      1.270041
   9        1.407298      1.407305
  10        4.378681      4.378698
  11       14.192162     14.192164
  12       14.240953     14.240951
  13       14.240955     14.240953
  14       15.955621     15.955706
  15       16.035484     16.035487
  16       16.600330     16.600332
 
  0.5263158E-01  0.0000000E+00  0.5263158E-01  0.5555556E-02
   1      -11.510110    -11.510115
   2        0.660393      0.660400
   3        0.972837      0.972851
   4        0.972838      0.972852
   5        1.092748      1.092772
   6        1.136700      1.136716
   7        1.350248      1.350257
   8        1.350249      1.350258
   9        1.598355      1.598364
  10        4.522045      4.522062
  11       13.983382     13.983394
  12       14.140586     14.140584
  13       14.140588     14.140586
  14       15.305979     15.305978
  15       16.244956     16.245032
  16       16.783155     16.783160
 
  0.7894737E-01  0.0000000E+00  0.7894737E-01  0.5555556E-02
   1      -11.493922    -11.493926
   2        0.396580      0.396585
   3        0.891759      0.891771
   4        0.891760      0.891772
   5        1.082760      1.082783
   6        1.142415      1.142431
   7        1.431511      1.431523
   8        1.431512      1.431523
   9        1.754038      1.754049
  10        4.748865      4.748881
  11       13.726723     13.726742
  12       14.007617     14.007616
  13       14.007619     14.007618
  14       14.559749     14.559747
  15       16.635524     16.635595
  16       17.052667     17.052387
 
  0.1052632E+00  0.0000000E+00  0.1052632E+00  0.5555556E-02
   1      -11.472087    -11.472092
   2        0.141538      0.141543
   3        0.814694      0.814705
   4        0.814694      0.814705
   5        1.069174      1.069197
   6        1.150230      1.150245
   7        1.507822      1.507835
   8        1.507823      1.507836
   9        1.875557      1.875569
  10        5.042227      5.042243
  11       13.460940     13.460963
  12       13.825853     13.825852
  13       13.869115     13.869115
  14       13.869117     13.869116
  15       17.088259     17.088130
  16       17.262612     17.261722
 
  0.1315789E+00  0.0000000E+00  0.1315789E+00  0.5555556E-02
   1      -11.445397    -11.445402
   2       -0.096471     -0.096466
   3        0.743814      0.743824
   4        0.743815      0.743825
   5        1.052365      1.052389
   6        1.159882      1.159897
   7        1.576069      1.576083
   8        1.576070      1.576084
   9        1.968039      1.968052
  10        5.381401      5.381417
  11       13.121111     13.121111
  12       13.202537     13.202564
  13       13.743921     13.743921
  14       13.743923     13.743923
  15       17.322525     17.323105
  16       17.598120     17.587752
 
  0.1578947E+00  0.0000000E+00  0.1578947E+00  0.5555556E-02
   1      -11.414808    -11.414812
   2       -0.311253     -0.311248
   3        0.680517      0.680526
   4        0.680517      0.680526
   5        1.032817      1.032841
   6        1.171147      1.171163
   7        1.634040      1.634055
   8        1.634041      1.634056
   9        2.037003      2.037017
  10        5.743398      5.743414
  11       12.461355     12.461355
  12       12.958702     12.958730
  13       13.644102     13.644102
  14       13.644104     13.644104
  15       17.397544     17.397676
  16       18.117761     18.118585
 
  0.1842105E+00  0.0000000E+00  0.1842105E+00  0.5555556E-02
   1      -11.381402    -11.381407
   2       -0.498249     -0.498245
   3        0.625708      0.625717
   4        0.625709      0.625717
   5        1.011060      1.011084
   6        1.183724      1.183740
   7        1.679974      1.679990
   8        1.679976      1.679991
   9        2.086592      2.086606
  10        6.102492      6.102508
  11       11.865219     11.865220
  12       12.732647     12.732677
  13       13.577107     13.577108
  14       13.577109     13.577109
  15       17.486398     17.487106
  16       18.500071     18.495223
 
  0.2105263E+00  0.0000000E+00  0.2105263E+00  0.5555556E-02
   1      -11.346332    -11.346337
   2       -0.654069     -0.654065
   3        0.579986      0.579993
   4        0.579986      0.579994
   5        0.987711      0.987735
   6        1.197282      1.197298
   7        1.712828      1.712845
   8        1.712830      1.712846
   9        2.119094      2.119109
  10        6.428132      6.428147
  11       11.357271     11.357274
  12       12.525788     12.525819
  13       13.547324     13.547325
  14       13.547325     13.547326
  15       17.588736     17.588953
  16       18.854552     18.864603
 
  0.2368421E+00  0.0000000E+00  0.2368421E+00  0.5555556E-02
   1      -11.310766    -11.310771
   2       -0.776628     -0.776624
   3        0.543621      0.543627
   4        0.543621      0.543628
   5        0.963403      0.963427
   6        1.211448      1.211464
   7        1.732072      1.732089
   8        1.732073      1.732091
   9        2.135190      2.135205
  10        6.683251      6.683265
  11       10.969423     10.969428
  12       12.338601     12.338633
  13       13.556760     13.556761
  14       13.556761     13.556763
  15       17.704268     17.704222
  16       19.171776     19.172270
 
  0.2631579E+00  0.0000000E+00  0.2631579E+00  0.5555556E-02
   1      -11.275825    -11.275830
   2       -0.864904     -0.864900
   3        0.516642      0.516647
   4        0.516642      0.516648
   5        0.938819      0.938843
   6        1.225844      1.225860
   7        1.738003      1.738021
   8        1.738004      1.738023
   9        2.134350      2.134366
  10        6.829562      6.829575
  11       10.735429     10.735439
  12       12.171092     12.171125
  13       13.605507     13.605509
  14       13.605509     13.605511
  15       17.832178     17.832160
  16       19.418885     19.419096
 
  0.2894737E+00  0.0000000E+00  0.2894737E+00  0.5555556E-02
   1      -11.242535    -11.242540
   2       -0.919070     -0.919066
   3        0.498686      0.498691
   4        0.498686      0.498691
   5        0.914624      0.914648
   6        1.240075      1.240091
   7        1.731610      1.731629
   8        1.731611      1.731630
   9        2.115318      2.115335
  10        6.846154      6.846164
  11       10.671731     10.671745
  12       12.022987     12.023020
  13       13.691762     13.691764
  14       13.691763     13.691766
  15       17.971447     17.971402
  16       19.569479     19.569134
 
  0.3157895E+00  0.0000000E+00  0.3157895E+00  0.5555556E-02
   1      -11.211771    -11.211776
   2       -0.940552     -0.940549
   3        0.489080      0.489084
   4        0.489080      0.489084
   5        0.891474      0.891498
   6        1.253750      1.253767
   7        1.714629      1.714649
   8        1.714630      1.714650
   9        2.076923      2.076939
  10        6.748638      6.748645
  11       10.757918     10.757937
  12       11.893871     11.893904
  13       13.811867     13.811870
  14       13.811869     13.811872
  15       18.120214     18.120075
  16       19.603293     19.603398
 
  0.3421053E+00  0.0000000E+00  0.3421053E+00  0.5555556E-02
   1      -11.184235    -11.184240
   2       -0.932302     -0.932298
   3        0.486817      0.486820
   4        0.486817      0.486820
   5        0.869992      0.870016
   6        1.266492      1.266508
   7        1.689444      1.689465
   8        1.689445      1.689466
   9        2.019042      2.019059
  10        6.580800      6.580804
  11       10.944525     10.944549
  12       11.783264     11.783298
  13       13.960133     13.960137
  14       13.960135     13.960139
  15       18.275427     18.275280
  16       19.525606     19.525514
 
  0.3684211E+00  0.0000000E+00  0.3684211E+00  0.5555556E-02
   1      -11.160446    -11.160451
   2       -0.899008     -0.899004
   3        0.490447      0.490449
   4        0.490447      0.490449
   5        0.850756      0.850781
   6        1.277951      1.277967
   7        1.659042      1.659064
   8        1.659043      1.659065
   9        1.943532      1.943549
  10        6.388564      6.388567
  11       11.178524     11.178553
  12       11.690676     11.690710
  13       14.128336     14.128341
  14       14.128338     14.128343
  15       18.432829     18.432681
  16       19.362765     19.362780
 
  0.3947368E+00  0.0000000E+00  0.3947368E+00  0.5555556E-02
   1      -11.140749    -11.140754
   2       -0.847599     -0.847596
   3        0.498158      0.498159
   4        0.498158      0.498159
   5        0.834277      0.834302
   6        1.287801      1.287817
   7        1.626783      1.626806
   8        1.626784      1.626807
   9        1.855567      1.855584
  10        6.205410      6.205412
  11       11.417613     11.417646
  12       11.615641     11.615676
  13       14.305297     14.305303
  14       14.305299     14.305304
  15       18.586205     18.586818
  16       19.153027     19.153010
 
  0.4210526E+00  0.0000000E+00  0.4210526E+00  0.5555556E-02
   1      -11.125342    -11.125348
   2       -0.787474     -0.787471
   3        0.507790      0.507791
   4        0.507791      0.507791
   5        0.820988      0.821013
   6        1.295766      1.295782
   7        1.596299      1.596323
   8        1.596301      1.596325
   9        1.764322      1.764340
  10        6.051538      6.051539
  11       11.557744     11.557778
  12       11.631281     11.631316
  13       14.476100     14.476107
  14       14.476102     14.476108
  15       18.728251     18.725706
  16       18.935104     18.935095
 
  0.4473684E+00  0.0000000E+00  0.4473684E+00  0.5555556E-02
   1      -11.114317    -11.114323
   2       -0.730315     -0.730312
   3        0.517026      0.517025
   4        0.517026      0.517026
   5        0.811245      0.811269
   6        1.301624      1.301640
   7        1.571207      1.571232
   8        1.571209      1.571234
   9        1.682733      1.682751
  10        5.937520      5.937521
  11       11.516649     11.516683
  12       11.798172     11.798209
  13       14.621929     14.621937
  14       14.621931     14.621939
  15       18.745199     18.745176
  16       18.751541     18.749117
 
  0.4736842E+00  0.0000000E+00  0.4736842E+00  0.5555556E-02
   1      -11.107698    -11.107703
   2       -0.688835     -0.688832
   3        0.523667      0.523666
   4        0.523668      0.523667
   5        0.805317      0.805342
   6        1.305213      1.305229
   7        1.554673      1.554698
   8        1.554675      1.554700
   9        1.625493      1.625511
  10        5.868064      5.868064
  11       11.492106     11.492141
  12       11.903923     11.903962
  13       14.721710     14.721719
  14       14.721712     14.721721
  15       18.615132     18.615118
  16       18.618162     18.618308
 
  0.5000000E+00  0.0000000E+00  0.5000000E+00  0.5555556E-02
   1      -11.105495    -11.105500
   2       -0.673616     -0.673614
   3        0.526070      0.526069
   4        0.526070      0.526069
   5        0.803316      0.803340
   6        1.306418      1.306435
   7        1.548890      1.548915
   8        1.548892      1.548917
   9        1.604779      1.604797
  10        5.844790      5.844790
  11       11.483938     11.483973
  12       11.940093     11.940132
  13       14.757413     14.757422
  14       14.757415     14.757423
  15       18.568722     18.568707
  16       18.582334     18.570544
 
  0.5000000E+00  0.0000000E+00  0.5000000E+00  0.5555556E-02
   1      -11.105495    -11.105500
   2       -0.673616     -0.673614
   3        0.526070      0.526069
   4        0.526070      0.526069
   5        0.803316      0.803340
   6        1.306418      1.306435
   7        1.548890      1.548915
   8        1.548892      1.548917
   9        1.604779      1.604797
  10        5.844790      5.844790
  11       11.483938     11.483973
  12       11.940093     11.940132
  13       14.757413     14.757422
  14       14.757415     14.757423
  15       18.568716     18.568718
  16       18.572850     18.571897
 
  0.5000000E+00  0.1315789E-01  0.5131579E+00  0.5555556E-02
   1      -11.105294    -11.105299
   2       -0.672833     -0.672830
   3        0.508754      0.508753
   4        0.512480      0.512480
   5        0.816573      0.816596
   6        1.319662      1.319679
   7        1.548890      1.548915
   8        1.549269      1.549295
   9        1.607945      1.607963
  10        5.852819      5.852820
  11       11.480716     11.480751
  12       11.936832     11.936871
  13       14.730919     14.730927
  14       14.766585     14.766594
  15       18.561211     18.561103
  16       18.588142     18.569302
 
  0.5000000E+00  0.2631579E-01  0.5263158E+00  0.5555556E-02
   1      -11.104692    -11.104697
   2       -0.670469     -0.670466
   3        0.460995      0.460995
   4        0.477659      0.477661
   5        0.850517      0.850539
   6        1.354297      1.354313
   7        1.548896      1.548921
   8        1.550402      1.550427
   9        1.618452      1.618469
  10        5.876888      5.876888
  11       11.471292     11.471326
  12       11.927124     11.927164
  13       14.653253     14.653261
  14       14.793878     14.793887
  15       18.537979     18.538423
  16       18.568918     18.568393
 
  0.5000000E+00  0.3947368E-01  0.5394737E+00  0.5555556E-02
   1      -11.103705    -11.103711
   2       -0.666514     -0.666512
   3        0.391664      0.391664
   4        0.431106      0.431109
   5        0.895569      0.895589
   6        1.398352      1.398368
   7        1.548906      1.548931
   8        1.552227      1.552252
   9        1.639310      1.639327
  10        5.916872      5.916872
  11       11.456242     11.456277
  12       11.911158     11.911197
  13       14.529332     14.529340
  14       14.838635     14.838643
  15       18.500786     18.500869
  16       18.566878     18.566799
 
  0.5000000E+00  0.5263158E-01  0.5526316E+00  0.5555556E-02
   1      -11.102362    -11.102367
   2       -0.660953     -0.660950
   3        0.309353      0.309354
   4        0.378840      0.378844
   5        0.945677      0.945697
   6        1.439192      1.439207
   7        1.548917      1.548942
   8        1.554650      1.554675
   9        1.674555      1.674571
  10        5.972548      5.972549
  11       11.436485     11.436520
  12       11.889243     11.889282
  13       14.366024     14.366030
  14       14.899838     14.899847
  15       18.450830     18.450461
  16       18.565782     18.566056
 
  0.5000000E+00  0.6578947E-01  0.5657895E+00  0.5555556E-02
   1      -11.100696    -11.100701
   2       -0.653746     -0.653743
   3        0.220361      0.220362
   4        0.323921      0.323926
   5        0.997725      0.997744
   6        1.469349      1.469365
   7        1.548935      1.548960
   8        1.557561      1.557585
   9        1.725331      1.725347
  10        6.043552      6.043553
  11       11.413160     11.413194
  12       11.861814     11.861852
  13       14.170846     14.170852
  14       14.976202     14.976211
  15       18.389168     18.388371
  16       18.564000     18.563584
 
  0.5000000E+00  0.7894737E-01  0.5789474E+00  0.5555556E-02
   1      -11.098753    -11.098758
   2       -0.644865     -0.644863
   3        0.128961      0.128963
   4        0.267952      0.267958
   5        1.050013      1.050032
   6        1.488847      1.488863
   7        1.548948      1.548973
   8        1.560794      1.560819
   9        1.787378      1.787393
  10        6.129324      6.129325
  11       11.387534     11.387568
  12       11.829397     11.829436
  13       13.951081     13.951086
  14       15.066247     15.066256
  15       18.316448     18.316051
  16       18.563362     18.561720
 
  0.5000000E+00  0.9210526E-01  0.5921053E+00  0.5555556E-02
   1      -11.096583    -11.096589
   2       -0.634267     -0.634264
   3        0.038113      0.038115
   4        0.211851      0.211856
   5        1.101584      1.101602
   6        1.501123      1.501140
   7        1.548971      1.548996
   8        1.564169      1.564194
   9        1.854404      1.854418
  10        6.229064      6.229065
  11       11.360903     11.360936
  12       11.792626     11.792664
  13       13.713359     13.713363
  14       15.168446     15.168454
  15       18.235321     18.235331
  16       18.560722     18.559304
 
  0.5000000E+00  0.1052632E+00  0.6052632E+00  0.5555556E-02
   1      -11.094248    -11.094253
   2       -0.621907     -0.621904
   3       -0.050173     -0.050171
   4        0.156203      0.156209
   5        1.151739      1.151757
   6        1.509113      1.509130
   7        1.548996      1.549021
   8        1.567470      1.567494
   9        1.921598      1.921612
  10        6.341639      6.341640
  11       11.334528     11.334562
  12       11.752199     11.752237
  13       13.463574     13.463577
  14       15.281216     15.281224
  15       18.147081     18.147067
  16       18.557107     18.558448
 
  0.5000000E+00  0.1184211E+00  0.6184211E+00  0.5555556E-02
   1      -11.091811    -11.091816
   2       -0.607751     -0.607748
   3       -0.134316     -0.134314
   4        0.101412      0.101418
   5        1.199996      1.200015
   6        1.514577      1.514594
   7        1.549022      1.549048
   8        1.570460      1.570485
   9        1.985920      1.985934
  10        6.465561      6.465563
  11       11.309588     11.309621
  12       11.708871     11.708908
  13       13.206984     13.206986
  14       15.403015     15.403023
  15       18.052282     18.052259
  16       18.554259     18.554363
 
  0.5000000E+00  0.1315789E+00  0.6315789E+00  0.5555556E-02
   1      -11.089334    -11.089339
   2       -0.591722     -0.591718
   3       -0.213149     -0.213146
   4        0.047790      0.047795
   5        1.245960      1.245978
   6        1.518509      1.518526
   7        1.549049      1.549074
   8        1.572889      1.572913
   9        2.045640      2.045653
  10        6.598891      6.598893
  11       11.287130     11.287163
  12       11.663479     11.663516
  13       12.948447     12.948448
  14       15.532362     15.532370
  15       17.951567     17.951580
  16       18.551610     18.552398
 
  0.5000000E+00  0.1447368E+00  0.6447368E+00  0.5555556E-02
   1      -11.086887    -11.086892
   2       -0.573786     -0.573783
   3       -0.285734     -0.285731
   4       -0.004453     -0.004447
   5        1.289330      1.289349
   6        1.521441      1.521458
   7        1.549074      1.549100
   8        1.574481      1.574504
   9        2.099704      2.099718
  10        6.739145      6.739147
  11       11.268056     11.268089
  12       11.616848     11.616885
  13       12.692611     12.692612
  14       15.667848     15.667855
  15       17.845486     17.845472
  16       18.549095     18.549274
 
  0.5000000E+00  0.1578947E+00  0.6578947E+00  0.5555556E-02
   1      -11.084537    -11.084542
   2       -0.553886     -0.553882
   3       -0.351306     -0.351304
   4       -0.055123     -0.055118
   5        1.329861      1.329880
   6        1.523693      1.523710
   7        1.549099      1.549124
   8        1.574962      1.574986
   9        2.147566      2.147579
  10        6.883201      6.883204
  11       11.253126     11.253159
  12       11.569842     11.569878
  13       12.444207     12.444207
  14       15.808145     15.808152
  15       17.734347     17.734312
  16       18.546876     18.546624
 
  0.5000000E+00  0.1710526E+00  0.6710526E+00  0.5555556E-02
   1      -11.082348    -11.082354
   2       -0.531978     -0.531974
   3       -0.409253     -0.409251
   4       -0.104073     -0.104068
   5        1.367361      1.367380
   6        1.525449      1.525466
   7        1.549122      1.549147
   8        1.574045      1.574068
   9        2.188959      2.188972
  10        7.027167      7.027170
  11       11.242944     11.242977
  12       11.523305     11.523340
  13       12.208282     12.208280
  14       15.952008     15.952014
  15       17.618290     17.618288
  16       18.544590     18.545677
 
  0.5000000E+00  0.1842105E+00  0.6842105E+00  0.5555556E-02
   1      -11.080382    -11.080388
   2       -0.508018     -0.508014
   3       -0.459073     -0.459070
   4       -0.151183     -0.151177
   5        1.401684      1.401704
   6        1.526822      1.526839
   7        1.549142      1.549167
   8        1.571445      1.571468
   9        2.223804      2.223817
  10        7.166250      7.166254
  11       11.237963     11.237996
  12       11.478065     11.478100
  13       11.990441     11.990439
  14       16.098272     16.098277
  15       17.497580     17.497562
  16       18.542559     18.542299
 
  0.5000000E+00  0.1973684E+00  0.6973684E+00  0.5555556E-02
   1      -11.078693    -11.078699
   2       -0.500347     -0.500344
   3       -0.481973     -0.481969
   4       -0.196355     -0.196350
   5        1.432723      1.432743
   6        1.527879      1.527896
   7        1.549157      1.549182
   8        1.566860      1.566882
   9        2.252127      2.252141
  10        7.294673      7.294677
  11       11.238491     11.238524
  12       11.434908     11.434942
  13       11.797016     11.797013
  14       16.245845     16.245850
  15       17.372307     17.372296
  16       18.542038     18.540950
 
  0.5000000E+00  0.2105263E+00  0.7105263E+00  0.5555556E-02
   1      -11.077327    -11.077333
   2       -0.532775     -0.532772
   3       -0.453799     -0.453794
   4       -0.239499     -0.239494
   5        1.460455      1.460475
   6        1.528676      1.528693
   7        1.549175      1.549200
   8        1.560070      1.560092
   9        2.274013      2.274026
  10        7.405766      7.405770
  11       11.244704     11.244738
  12       11.394595     11.394629
  13       11.635072     11.635069
  14       16.393739     16.393744
  15       17.242664     17.242664
  16       18.539171     18.539243
 
  0.5000000E+00  0.2236842E+00  0.7236842E+00  0.5555556E-02
   1      -11.076324    -11.076329
   2       -0.556112     -0.556110
   3       -0.423479     -0.423475
   4       -0.280583     -0.280578
   5        1.484877      1.484897
   6        1.529227      1.529244
   7        1.549192      1.549217
   8        1.550806      1.550827
   9        2.289536      2.289549
  10        7.492351      7.492356
  11       11.256627     11.256660
  12       11.357801     11.357835
  13       11.512022     11.512019
  14       16.541022     16.541026
  15       17.108936     17.108930
  16       18.538526     18.538712
 
  0.5000000E+00  0.2368421E+00  0.7368421E+00  0.5555556E-02
   1      -11.075709    -11.075715
   2       -0.570163     -0.570161
   3       -0.390997     -0.390993
   4       -0.319533     -0.319529
   5        1.506026      1.506046
   6        1.529554      1.529572
   7        1.538835      1.538857
   8        1.549199      1.549224
   9        2.298829      2.298842
  10        7.547669      7.547674
  11       11.274179     11.274213
  12       11.325134     11.325168
  13       11.434784     11.434780
  14       16.686874     16.686877
  15       16.971415     16.971416
  16       18.537684     18.537565
 
  0.5000000E+00  0.2500000E+00  0.7500000E+00  0.5555556E-02
   1      -11.075503    -11.075508
   2       -0.574864     -0.574862
   3       -0.356348     -0.356343
   4       -0.356348     -0.356343
   5        1.523963      1.523984
   6        1.523963      1.523985
   7        1.529662      1.529679
   8        1.549201      1.549227
   9        2.301918      2.301931
  10        7.566722      7.566727
  11       11.297117     11.297151
  12       11.297117     11.297151
  13       11.408411     11.408407
  14       16.830549     16.830552
  15       16.830549     16.830552
  16       18.537968     18.537521
 
  0.5000000E+00  0.2500000E+00  0.7500000E+00  0.5555556E-02
   1      -11.075503    -11.075508
   2       -0.574864     -0.574862
   3       -0.356348     -0.356343
   4       -0.356348     -0.356343
   5        1.523963      1.523984
   6        1.523963      1.523985
   7        1.529662      1.529679
   8        1.549201      1.549227
   9        2.301918      2.301931
  10        7.566722      7.566727
  11       11.297117     11.297151
  12       11.297117     11.297151
  13       11.408411     11.408407
  14       16.830549     16.830551
  15       16.830550     16.830552
  16       18.538118     18.539345
 
  0.4934211E+00  0.2565789E+00  0.7500000E+00  0.5555556E-02
   1      -11.075592    -11.075598
   2       -0.575166     -0.575163
   3       -0.373810     -0.373806
   4       -0.338436     -0.338431
   5        1.502900      1.502920
   6        1.528843      1.528865
   7        1.543273      1.543291
   8        1.552314      1.552339
   9        2.302537      2.302551
  10        7.562966      7.562972
  11       11.250685     11.250712
  12       11.310278     11.310311
  13       11.448339     11.448341
  14       16.756075     16.756077
  15       16.897823     16.897824
  16       18.541560     18.541621
 
  0.4868421E+00  0.2631579E+00  0.7500000E+00  0.5555556E-02
   1      -11.075846    -11.075852
   2       -0.575839     -0.575837
   3       -0.390454     -0.390449
   4       -0.320809     -0.320804
   5        1.479617      1.479637
   6        1.528136      1.528159
   7        1.560606      1.560629
   8        1.560615      1.560634
   9        2.304383      2.304396
  10        7.551780      7.551785
  11       11.183756     11.183781
  12       11.324102     11.324136
  13       11.521445     11.521450
  14       16.674672     16.674676
  15       16.956872     16.956874
  16       18.554680     18.554424
 
  0.4802632E+00  0.2697368E+00  0.7500000E+00  0.5555556E-02
   1      -11.076240    -11.076245
   2       -0.576617     -0.576615
   3       -0.406253     -0.406248
   4       -0.303840     -0.303835
   5        1.456209      1.456229
   6        1.525317      1.525341
   7        1.570609      1.570633
   8        1.579655      1.579673
   9        2.307441      2.307455
  10        7.533488      7.533493
  11       11.118139     11.118162
  12       11.338415     11.338449
  13       11.606005     11.606010
  14       16.586039     16.586043
  15       17.007328     17.007329
  16       18.576024     18.576029
 
  0.4736842E+00  0.2763158E+00  0.7500000E+00  0.5555556E-02
   1      -11.076748    -11.076753
   2       -0.577363     -0.577361
   3       -0.421191     -0.421186
   4       -0.287794     -0.287789
   5        1.432923      1.432943
   6        1.521981      1.522004
   7        1.580721      1.580744
   8        1.600095      1.600112
   9        2.311686      2.311699
  10        7.508625      7.508630
  11       11.057071     11.057095
  12       11.353036     11.353070
  13       11.698554     11.698560
  14       16.490141     16.490144
  15       17.049151     17.049150
  16       18.606906     18.606294
 
  0.4671053E+00  0.2828947E+00  0.7500000E+00  0.5555556E-02
   1      -11.077349    -11.077354
   2       -0.578003     -0.578000
   3       -0.435250     -0.435245
   4       -0.272828     -0.272823
   5        1.409972      1.409992
   6        1.518602      1.518626
   7        1.590462      1.590485
   8        1.621612      1.621629
   9        2.317095      2.317108
  10        7.477930      7.477935
  11       11.001261     11.001285
  12       11.367788     11.367822
  13       11.797922     11.797928
  14       16.387215     16.387219
  15       17.082659     17.082660
  16       18.645047     18.644236
 
  0.4605263E+00  0.2894737E+00  0.7500000E+00  0.5555556E-02
   1      -11.078020    -11.078025
   2       -0.578510     -0.578508
   3       -0.448414     -0.448410
   4       -0.259036     -0.259031
   5        1.387551      1.387571
   6        1.515338      1.515363
   7        1.599663      1.599686
   8        1.643827      1.643844
   9        2.323595      2.323609
  10        7.442314      7.442318
  11       10.950805     10.950829
  12       11.382489     11.382523
  13       11.903323     11.903328
  14       16.277729     16.277733
  15       17.108495     17.108497
  16       18.689111     18.689478
 
  0.4539474E+00  0.2960526E+00  0.7500000E+00  0.5555556E-02
   1      -11.078739    -11.078744
   2       -0.578881     -0.578878
   3       -0.460668     -0.460664
   4       -0.246449     -0.246444
   5        1.365857      1.365878
   6        1.512262      1.512287
   7        1.608251      1.608274
   8        1.666334      1.666351
   9        2.331131      2.331144
  10        7.402820      7.402824
  11       10.905575     10.905599
  12       11.396963     11.396997
  13       12.013991     12.013996